 Gaussian 09, Revision D.01,
 Gaussian 09:  ES64L-G09RevD.01 24-Apr-2013

 -----------------------------------------------------------------
 # opt=(calcfc,noraman) freq=noraman hf/6-31g(d) geom=connectivity
 -----------------------------------------------------------------

 -------------------
 Title Card Required
 -------------------
 Symbolic Z-matrix:
 Charge =  0 Multiplicity = 1

 SCF Done:  E(RHF) =  -460.242919987     A.U. after   13 cycles
 SCF Done:  E(RHF) =  -460.245511431     A.U. after   15 cycles
 SCF Done:  E(RHF) =  -460.253485277     A.U. after   14 cycles
 SCF Done:  E(RHF) =  -460.189947344     A.U. after   14 cycles
 SCF Done:  E(RHF) =  -460.253829714     A.U. after   10 cycles
 SCF Done:  E(RHF) =  -460.253886436     A.U. after   11 cycles
 SCF Done:  E(RHF) =  -460.253945132     A.U. after   12 cycles
 SCF Done:  E(RHF) =  -460.253945596     A.U. after    8 cycles
 Optimization completed.
    -- Stationary point found.
 Normal termination of Gaussian 09 at Mon Feb  1 14:46:01 2016.

 -----------------------------------------------------------------
 #N Geom=AllCheck Guess=TCheck SCRF=Check GenChk RHF/6-31G(d) Freq
 -----------------------------------------------------------------

 Structure from the checkpoint file:  "diphenyl.chk"
 -------------------
 Title Card Required
 -------------------
 Charge =  0 Multiplicity = 1

                         Standard orientation:
 ---------------------------------------------------------------------
 Center     Atomic      Atomic             Coordinates (Angstroms)
 Number     Number       Type             X           Y           Z
 ---------------------------------------------------------------------
      1          6           0        1.103641   -2.844109   -0.462019
      2          6           0        1.103020   -1.459436   -0.462084
      3          6           0        0.000000   -0.745591    0.000000
      4          6           0       -1.103020   -1.459436    0.462084
      5          6           0       -1.103641   -2.844109    0.462019
      6          6           0        0.000000   -3.542307    0.000000
      7          1           0        1.963085   -3.376226   -0.829553
      8          1           0        1.957158   -0.928216   -0.842018
      9          1           0       -1.957158   -0.928216    0.842018
     10          1           0       -1.963085   -3.376226    0.829553
     11          1           0        0.000000   -4.617657    0.000000
     12          6           0        1.103020    1.459436    0.462084
     13          6           0        1.103641    2.844109    0.462019
     14          6           0        0.000000    3.542307    0.000000
     15          6           0       -1.103641    2.844109   -0.462019
     16          6           0       -1.103020    1.459436   -0.462084
     17          6           0        0.000000    0.745591    0.000000
     18          1           0        1.957158    0.928216    0.842018
     19          1           0        1.963085    3.376226    0.829553
     20          1           0        0.000000    4.617657    0.000000
     21          1           0       -1.963085    3.376226   -0.829553
     22          1           0       -1.957158    0.928216   -0.842018
 ---------------------------------------------------------------------

 SCF Done:  E(RHF) =  -460.253945596     A.U. after    1 cycles

 The electronic state is 1-A.
 Alpha  occ. eigenvalues --  -11.24041 -11.23971 -11.23063 -11.23063 -11.23027
 Alpha  occ. eigenvalues --  -11.23027 -11.22868 -11.22868 -11.22839 -11.22839
 Alpha  occ. eigenvalues --  -11.22812 -11.22812  -1.16798  -1.14108  -1.05042
 Alpha  occ. eigenvalues --   -1.01732  -1.00969  -0.98153  -0.84769  -0.83820
 Alpha  occ. eigenvalues --   -0.80990  -0.78820  -0.71729  -0.68167  -0.64952
 Alpha  occ. eigenvalues --   -0.63493  -0.61463  -0.60581  -0.58784  -0.58183
 Alpha  occ. eigenvalues --   -0.58088  -0.51852  -0.51171  -0.49931  -0.48823
 Alpha  occ. eigenvalues --   -0.48084  -0.47735  -0.36005  -0.33375  -0.33202
 Alpha  occ. eigenvalues --   -0.29980
 Alpha virt. eigenvalues --    0.11674   0.14476   0.14650   0.18264   0.24419
 Alpha virt. eigenvalues --    0.24506   0.28223   0.30063   0.30273   0.31920
 Alpha virt. eigenvalues --    0.32915   0.33314   0.34552   0.35007   0.37718

 Mulliken charges:
               1
     1  C   -0.198438
     2  C   -0.215933
     3  C    0.011660
     4  C   -0.215933
     5  C   -0.198438
     6  C   -0.202970
     7  H    0.201557
     8  H    0.207991
     9  H    0.207991
    10  H    0.201557
    11  H    0.200956
    12  C   -0.215933
    13  C   -0.198438
    14  C   -0.202970
    15  C   -0.198438
    16  C   -0.215933
    17  C    0.011660
    18  H    0.207991
    19  H    0.201557
    20  H    0.200956
    21  H    0.201557
    22  H    0.207991
 Sum of Mulliken charges =   0.00000

 Dipole moment (field-independent basis, Debye):
    X=              0.0000    Y=              0.0000    Z=              0.0000  Tot=              0.0000
 Quadrupole moment (field-independent basis, Debye-Ang):
   XX=            -63.5008   YY=            -61.1860   ZZ=            -74.6636
   XY=              0.0000   XZ=              0.0000   YZ=              0.0000

  Exact polarizability: 111.710   0.000 169.814   0.000   0.000  53.347
 Approx polarizability: 118.849   0.000 143.070   0.000   0.000  59.926

                      1                      2                      3
                      A                      A                      B
 Frequencies --     67.3834               104.7838               131.0497
 Red. masses --      3.7068                 4.3588                 4.0655
 Frc consts  --      0.0099                 0.0282                 0.0411
 IR Inten    --      0.0000                 0.7748                 0.1299

                      4                      5                      6
                      B                      A                      A
 Frequencies --    298.4102               330.3549               391.3263
 Red. masses --      4.1096                 6.3299                 3.9078
 Frc consts  --      0.2156                 0.4070                 0.3526
 IR Inten    --      0.0595                 0.0000                 0.0965

                      7                      8                      9
                      B                      A                      A
 Frequencies --    454.4330               461.5354               553.0150
 Red. masses --      2.9331                 2.9706                 3.6069
 Frc consts  --      0.3569                 0.3728                 0.6499
 IR Inten    --      0.2854                 0.0000                 6.8476

                     10                     11                     12
                      B                      B                      A
 Frequencies --    609.3615               668.4927               673.8883
 Red. masses --      3.0196                 6.9134                 6.4453
 Frc consts  --      0.6606                 1.8203                 1.7245
 IR Inten    --      3.0009                 7.8987                 0.0004

                     13                     14                     15
                      B                      A                      B
 Frequencies --    685.6898               779.9188               781.3491
 Red. masses --      6.2267                 2.1676                 1.7346
 Frc consts  --      1.7249                 0.7768                 0.6240
 IR Inten    --      0.0531                35.2103                10.4760

                     16                     17                     18
                      A                      A                      B
 Frequencies --    807.3457               835.7246               878.6413
 Red. masses --      5.6887                 1.4887                 1.8387
 Frc consts  --      2.1846                 0.6126                 0.8363
 IR Inten    --      0.0000                96.3220                10.0471

                     19                     20                     21
                      B                      A                      A
 Frequencies --    958.8811               960.3870              1034.4262
 Red. masses --      1.2486                 1.2422                 1.3597
 Frc consts  --      0.6764                 0.6751                 0.8572
 IR Inten    --      0.1139                 0.0000                 3.7808

                     22                     23                     24
                      B                      B                      A
 Frequencies --   1052.8736              1084.4738              1089.1821
 Red. masses --      1.4735                 6.2438                 5.0744
 Frc consts  --      0.9624                 4.3265                 3.5468
 IR Inten    --      1.2455                 0.1538                 0.0000

                     25                     26                     27
                      B                      B                      A
 Frequencies --   1100.2876              1102.5043              1104.7787
 Red. masses --      2.6677                 1.9688                 1.4268
 Frc consts  --      1.9028                 1.4100                 1.0260
 IR Inten    --      4.7051                 1.2324                 0.0000

                     28                     29                     30
                      A                      B                      A
 Frequencies --   1124.5869              1124.6396              1133.0456
 Red. masses --      1.3143                 1.3262                 2.2521
 Frc consts  --      0.9793                 0.9883                 1.7035
 IR Inten    --      0.2474                 0.0717                 0.0000

                     31                     32                     33
                      B                      A                      B
 Frequencies --   1152.3002              1183.2847              1186.2579
 Red. masses --      1.7950                 1.7722                 1.6838
 Frc consts  --      1.4042                 1.4620                 1.3960
 IR Inten    --      0.9003                 0.2086                 4.2513

                     34                     35                     36
                      B                      A                      B
 Frequencies --   1205.8750              1223.6401              1302.1805
 Red. masses --      2.8673                 2.0724                 1.1461
 Frc consts  --      2.4566                 1.8282                 1.1450
 IR Inten    --      0.0078                 0.0726                 0.3980

                     37                     38                     39
                      A                      B                      A
 Frequencies --   1306.9048              1324.8414              1336.6495
 Red. masses --      1.1581                 1.4646                 1.5911
 Frc consts  --      1.1655                 1.5146                 1.6749
 IR Inten    --      0.0000                 0.0875                 0.0158

                     40                     41                     42
                      A                      B                      A
 Frequencies --   1405.6990              1464.7206              1480.3024
 Red. masses --      3.1517                 1.3520                 1.3166
 Frc consts  --      3.6693                 1.7090                 1.6998
 IR Inten    --      0.0000                 2.5667                 0.0307

                     43                     44                     45
                      B                      A                      B
 Frequencies --   1594.5951              1624.7332              1657.6836
 Red. masses --      1.9703                 2.2378                 2.0074
 Frc consts  --      2.9517                 3.4804                 3.2500
 IR Inten    --     11.7066                 2.5045                44.1120

                     46                     47                     48
                      A                      B                      A
 Frequencies --   1683.4339              1769.0437              1786.4565
 Red. masses --      2.4281                 4.7411                 5.5941
 Frc consts  --      4.0542                 8.7420                10.5188
 IR Inten    --      0.0000                 5.8092                 0.2583

                     49                     50                     51
                      B                      A                      B
 Frequencies --   1805.0895              1815.4789              3352.9998
 Red. masses --      5.2108                 5.3538                 1.0862
 Frc consts  --     10.0036                10.3967                 7.1948
 IR Inten    --     15.5849                 0.0000                 7.9172

                     52                     53                     54
                      A                      A                      B
 Frequencies --   3353.8297              3359.9159              3362.6939
 Red. masses --      1.0863                 1.0894                 1.0896
 Frc consts  --      7.1989                 7.2459                 7.2593
 IR Inten    --      0.0000                 0.0509                 8.1456

                     55                     56                     57
                      B                      A                      A
 Frequencies --   3370.9008              3374.4933              3378.4269
 Red. masses --      1.0926                 1.0928                 1.0961
 Frc consts  --      7.3150                 7.3317                 7.3713
 IR Inten    --     48.8567                 0.0000                16.6895

                     58                     59                     60
                      B                      B                      A
 Frequencies --   3381.3467              3387.9338              3389.4664
 Red. masses --      1.0951                 1.0990                 1.0988
 Frc consts  --      7.3771                 7.4322                 7.4373
 IR Inten    --     67.4444                45.2231                 0.0000

 - Thermochemistry -
 -------------------
 Temperature   298.150 Kelvin.  Pressure   1.00000 Atm.
 Atom     1 has atomic number  6 and mass  12.00000

 Molecular mass:   154.07825 amu.
 Principal axes and moments of inertia in atomic units:
                           1         2         3
     Eigenvalues --   621.255183297.994013732.64296
           X            0.00000   1.00000   0.00000
           Y            1.00000   0.00000   0.00000
           Z            0.00000   0.00000   1.00000
 This molecule is an asymmetric top.
 Rotational symmetry number  2.
 Warning -- assumption of classical behavior for rotation
           may cause significant error
 Rotational temperatures (Kelvin)      0.13942     0.02626     0.02320
 Rotational constants (GHZ):           2.90499     0.54722     0.48350
 Zero-point vibrational energy     510829.0 (Joules/Mol)
                                  122.09107 (Kcal/Mol)
 Warning -- explicit consideration of  10 degrees of freedom as
           vibrations may cause significant error
 Vibrational temperatures:     96.95   150.76   188.55   429.35   475.31
          (Kelvin)            563.03   653.83   664.05   795.66   876.73
                              961.81   969.57   986.55  1122.13  1124.19
                             1161.59  1202.42  1264.17  1379.61  1381.78
                             1488.31  1514.85  1560.31  1567.09  1583.07
                             1586.26  1589.53  1618.03  1618.10  1630.20
                             1657.90  1702.48  1706.76  1734.98  1760.54
                             1873.54  1880.34  1906.15  1923.14  2022.48
                             2107.40  2129.82  2294.26  2337.63  2385.03
                             2422.08  2545.26  2570.31  2597.12  2612.07
                             4824.21  4825.41  4834.16  4838.16  4849.97
                             4855.14  4860.80  4865.00  4874.47  4876.68

 Zero-point correction=                           0.194565 (Hartree/Particle)
 Thermal correction to Energy=                    0.202825
 Thermal correction to Enthalpy=                  0.203769
 Thermal correction to Gibbs Free Energy=         0.161001
 Sum of electronic and zero-point Energies=           -460.059381
 Sum of electronic and thermal Energies=              -460.051120
 Sum of electronic and thermal Enthalpies=            -460.050176
 Sum of electronic and thermal Free Energies=         -460.092944

                     E (Thermal)             CV                S
                      KCal/Mol        Cal/Mol-Kelvin    Cal/Mol-Kelvin
 Total                  127.275             33.041             90.013
 Electronic               0.000              0.000              0.000
 Translational            0.889              2.981             41.007
 Rotational               0.889              2.981             29.038
 Vibrational            125.497             27.080             19.968
 Vibration     1          0.598              1.970              4.228
 Vibration     2          0.605              1.945              3.363
 Vibration     3          0.612              1.922              2.931
 Vibration     4          0.691              1.677              1.426
 Vibration     5          0.713              1.615              1.258
 Vibration     6          0.759              1.489              0.995
 Vibration     7          0.813              1.351              0.782
 Vibration     8          0.819              1.335              0.762
 Vibration     9          0.908              1.133              0.538
 Vibration    10          0.968              1.012              0.434

 Optimization completed.
    -- Stationary point found.
 Normal termination of Gaussian 09 at Mon Feb  1 14:46:45 2016.
